 argument  1 = dft_scanl.nw



============================== echo of input deck ==============================
echo
title "Test SCAN-L"

start scanl

geometry
  H     -0.53613834     1.65036000     0.76488131
  N     -0.20560016     1.19352105    -0.09517494
  C      0.50994699     0.02103750     0.20703847
  H      1.50546027    -0.04117360    -0.23494242
  F     -0.24147792    -1.09742630    -0.06675439
end

basis cartesian
  C library 6-31g*
  N library 6-31g*
  F library 6-31g*
  H library 6-31g
end

dft
 xc scanl
 grid xfine
end
task dft energy
================================================================================


                                         
                                         


             Northwest Computational Chemistry Package (NWChem) 7.2.2
             --------------------------------------------------------


                    Environmental Molecular Sciences Laboratory
                       Pacific Northwest National Laboratory
                                Richland, WA 99352

                              Copyright (c) 1994-2022
                       Pacific Northwest National Laboratory
                            Battelle Memorial Institute

             NWChem is an open-source computational chemistry package
                        distributed under the terms of the
                      Educational Community License (ECL) 2.0
             A copy of the license is included with this distribution
                              in the LICENSE.TXT file

                                  ACKNOWLEDGMENT
                                  --------------

            This software and its documentation were developed at the
            EMSL at Pacific Northwest National Laboratory, a multiprogram
            national laboratory, operated for the U.S. Department of Energy
            by Battelle under Contract Number DE-AC05-76RL01830. Support
            for this work was provided by the Department of Energy Office
            of Biological and Environmental Research, Office of Basic
            Energy Sciences, and the Office of Advanced Scientific Computing.


           Job information
           ---------------

    hostname        = debian
    program         = nwchem
    date            = Fri Sep 20 18:16:52 2024

    compiled        = Fri_Sep_20_15:41:13_2024
    source          = /home/kluo/Documents/repos/nwchem
    nwchem branch   = 7.2.2
    nwchem revision = v7.2.0-beta1-421-g74936fb92a
    ga revision     = 5.8.0
    use scalapack   = T
    input           = dft_scanl.nw
    prefix          = scanl.
    data base       = ./scanl.db
    status          = startup
    nproc           =        1
    time left       =     -1s



           Memory information
           ------------------

    heap     =   26214394 doubles =    200.0 Mbytes
    stack    =   26214399 doubles =    200.0 Mbytes
    global   =   52428800 doubles =    400.0 Mbytes (distinct from heap & stack)
    total    =  104857593 doubles =    800.0 Mbytes
    verify   = yes
    hardfail = no 


           Directory information
           ---------------------

  0 permanent = .
  0 scratch   = .




                                NWChem Input Module
                                -------------------


                                    Test SCAN-L
                                    -----------

 Scaling coordinates for geometry "geometry" by  1.889725989
 (inverse scale =  0.529177249)

 C1  symmetry detected

          ------
          auto-z
          ------
  no constraints, skipping    0.0000000000000000     
  no constraints, skipping    0.0000000000000000     


                             Geometry "geometry" -> ""
                             -------------------------

 Output coordinates in angstroms (scale by  1.889725989 to convert to a.u.)

  No.       Tag          Charge          X              Y              Z
 ---- ---------------- ---------- -------------- -------------- --------------
    1 H                    1.0000    -0.46151227     1.64900039     0.78859912
    2 N                    7.0000    -0.26850335     1.17628502    -0.10411685
    3 C                    6.0000     0.51633303     0.02722821     0.10023253
    4 H                    1.0000     1.42498181    -0.02627119    -0.50123170
    5 F                    9.0000    -0.24243825    -1.11334373    -0.01777163

      Atomic Mass 
      ----------- 

      H                  1.007825
      N                 14.003070
      C                 12.000000
      F                 18.998400


 Effective nuclear repulsion energy (a.u.)      65.1361364159

            Nuclear Dipole moment (a.u.) 
            ----------------------------
        X                 Y               Z
 ---------------- ---------------- ----------------
     0.0000000000     0.0000000000    -0.0000000000



                                Z-matrix (autoz)
                                -------- 

 Units are Angstrom for bonds and degrees for angles

      Type          Name      I     J     K     L     M      Value
      ----------- --------  ----- ----- ----- ----- ----- ----------
    1 Stretch                  1     2                       1.02842
    2 Stretch                  2     3                       1.40643
    3 Stretch                  3     4                       1.09099
    4 Stretch                  3     5                       1.37498
    5 Bend                     1     2     3               110.74073
    6 Bend                     2     3     4               115.13341
    7 Bend                     2     3     5               110.93460
    8 Bend                     4     3     5               111.81548
    9 Torsion                  1     2     3     4        -126.78514
   10 Torsion                  1     2     3     5         104.97404


            XYZ format geometry
            -------------------
     5
 geometry
 H                    -0.46151227     1.64900039     0.78859912
 N                    -0.26850335     1.17628502    -0.10411685
 C                     0.51633303     0.02722821     0.10023253
 H                     1.42498181    -0.02627119    -0.50123170
 F                    -0.24243825    -1.11334373    -0.01777163

 ==============================================================================
                                internuclear distances
 ------------------------------------------------------------------------------
       center one      |      center two      | atomic units |  angstroms
 ------------------------------------------------------------------------------
    2 N                |   1 H                |     1.94344  |     1.02842
    3 C                |   2 N                |     2.65778  |     1.40643
    4 H                |   3 C                |     2.06168  |     1.09099
    5 F                |   3 C                |     2.59833  |     1.37498
 ------------------------------------------------------------------------------
                         number of included internuclear distances:          4
 ==============================================================================



 ==============================================================================
                                 internuclear angles
 ------------------------------------------------------------------------------
        center 1       |       center 2       |       center 3       |  degrees
 ------------------------------------------------------------------------------
    1 H                |   2 N                |   3 C                |   110.74
    2 N                |   3 C                |   4 H                |   115.13
    2 N                |   3 C                |   5 F                |   110.93
    4 H                |   3 C                |   5 F                |   111.82
 ------------------------------------------------------------------------------
                            number of included internuclear angles:          4
 ==============================================================================



                      Basis "ao basis" -> "" (cartesian)
                      -----
  C (Carbon)
  ----------
            Exponent  Coefficients 
       -------------- ---------------------------------------------------------
  1 S  3.04752490E+03  0.001835
  1 S  4.57369510E+02  0.014037
  1 S  1.03948690E+02  0.068843
  1 S  2.92101550E+01  0.232184
  1 S  9.28666300E+00  0.467941
  1 S  3.16392700E+00  0.362312

  2 S  7.86827240E+00 -0.119332
  2 S  1.88128850E+00 -0.160854
  2 S  5.44249300E-01  1.143456

  3 P  7.86827240E+00  0.068999
  3 P  1.88128850E+00  0.316424
  3 P  5.44249300E-01  0.744308

  4 S  1.68714400E-01  1.000000

  5 P  1.68714400E-01  1.000000

  6 D  8.00000000E-01  1.000000

  N (Nitrogen)
  ------------
            Exponent  Coefficients 
       -------------- ---------------------------------------------------------
  1 S  4.17351100E+03  0.001835
  1 S  6.27457900E+02  0.013995
  1 S  1.42902100E+02  0.068587
  1 S  4.02343300E+01  0.232241
  1 S  1.28202100E+01  0.469070
  1 S  4.39043700E+00  0.360455

  2 S  1.16263580E+01 -0.114961
  2 S  2.71628000E+00 -0.169118
  2 S  7.72218000E-01  1.145852

  3 P  1.16263580E+01  0.067580
  3 P  2.71628000E+00  0.323907
  3 P  7.72218000E-01  0.740895

  4 S  2.12031300E-01  1.000000

  5 P  2.12031300E-01  1.000000

  6 D  8.00000000E-01  1.000000

  F (Fluorine)
  ------------
            Exponent  Coefficients 
       -------------- ---------------------------------------------------------
  1 S  7.00171309E+03  0.001820
  1 S  1.05136609E+03  0.013916
  1 S  2.39285690E+02  0.068405
  1 S  6.73974453E+01  0.233186
  1 S  2.15199573E+01  0.471267
  1 S  7.40310130E+00  0.356619

  2 S  2.08479528E+01 -0.108507
  2 S  4.80830834E+00 -0.146452
  2 S  1.34406986E+00  1.128689

  3 P  2.08479528E+01  0.071629
  3 P  4.80830834E+00  0.345912
  3 P  1.34406986E+00  0.722470

  4 S  3.58151393E-01  1.000000

  5 P  3.58151393E-01  1.000000

  6 D  8.00000000E-01  1.000000

  H (Hydrogen)
  ------------
            Exponent  Coefficients 
       -------------- ---------------------------------------------------------
  1 S  1.87311370E+01  0.033495
  1 S  2.82539370E+00  0.234727
  1 S  6.40121700E-01  0.813757

  2 S  1.61277800E-01  1.000000



 Summary of "ao basis" -> "" (cartesian)
 ------------------------------------------------------------------------------
       Tag                 Description            Shells   Functions and Types
 ---------------- ------------------------------  ------  ---------------------
 C                           6-31g*                  6       15   3s2p1d
 N                           6-31g*                  6       15   3s2p1d
 F                           6-31g*                  6       15   3s2p1d
 H                           6-31g                   2        2   2s



                                 NWChem DFT Module
                                 -----------------


                                    Test SCAN-L




 Summary of "ao basis" -> "ao basis" (cartesian)
 ------------------------------------------------------------------------------
       Tag                 Description            Shells   Functions and Types
 ---------------- ------------------------------  ------  ---------------------
 C                           6-31g*                  6       15   3s2p1d
 N                           6-31g*                  6       15   3s2p1d
 F                           6-31g*                  6       15   3s2p1d
 H                           6-31g                   2        2   2s


  Caching 1-el integrals 

            General Information
            -------------------
          SCF calculation type: DFT
          Wavefunction type:  closed shell.
          No. of atoms     :     5
          No. of electrons :    24
           Alpha electrons :    12
            Beta electrons :    12
          Charge           :     0
          Spin multiplicity:     1
          Use of symmetry is: off; symmetry adaption is: off
          Maximum number of iterations:  50
          AO basis - number of functions:    49
                     number of shells:    22
          Convergence on energy requested:  1.00D-06
          Convergence on density requested:  1.00D-05
          Convergence on gradient requested:  5.00D-04

              XC Information
              --------------
                       SCAN-L Method XC Functional
                SCAN-L metaGGA Exchange Functional  1.000          
                      SCAN-L Correlation Potential  1.000          

             Grid Information
             ----------------
          Grid used for XC integration:  xfine     
          Radial quadrature: Mura-Knowles        
          Angular quadrature: Lebedev. 
          Tag              B.-S. Rad. Rad. Pts. Rad. Cut. Ang. Pts.
          ---              ---------- --------- --------- ---------
          H                   0.35      100           8.0      1202
          N                   0.65      100           7.0      1454
          C                   0.70      100           7.0      1454
          F                   0.50      100           8.0      1454
          Grid pruning is: on 
          Number of quadrature shells:   500
          Spatial weights used:  Erf1

          Convergence Information
          -----------------------
          Convergence aids based upon iterative change in 
          total energy or number of iterations. 
          Levelshifting, if invoked, occurs when the 
          HOMO/LUMO gap drops below (HL_TOL):  1.00D-02
          DIIS, if invoked, will attempt to extrapolate 
          using up to (NFOCK): 10 stored Fock matrices.

                    Damping( 0%)  Levelshifting(0.5)       DIIS
                  --------------- ------------------- ---------------
          dE  on:    start            ASAP                start   
          dE off:    2 iters         50 iters            50 iters 


      Screening Tolerance Information
      -------------------------------
          Density screening/tol_rho:  1.00D-10
          AO Gaussian exp screening on grid/accAOfunc:  14
          CD Gaussian exp screening on grid/accCDfunc:  20
          XC Gaussian exp screening on grid/accXCfunc:  20
          Schwarz screening/accCoul:  1.00D-08


      Superposition of Atomic Density Guess
      -------------------------------------

 Sum of atomic energies:        -192.32278949

      Non-variational initial energy
      ------------------------------

 Total energy =    -193.031125
 1-e energy   =    -393.731922
 2-e energy   =     135.564660
 HOMO         =      -0.274590
 LUMO         =      -0.074195

  WARNING: movecs_in_org=atomic not equal to movecs_in=./scanl.movecs
   Time after variat. SCF:      0.1
   Time prior to 1st pass:      0.1

 Integral file          = ./scanl.aoints.0
 Record size in doubles =    65536    No. of integs per rec  =    43688
 Max. records in memory =       26    Max. records in file   =  1056830
 No. of bits per label  =        8    No. of bits per value  =       64


 #quartets = 3.115D+04 #integrals = 7.829D+05 #direct =  0.0% #cached =100.0%


 Grid_pts file          = ./scanl.gridpts.0
 Record size in doubles =  12289        No. of grid_pts per rec  =   3070
 Max. records in memory =    262        Max. recs in file   =   5635975


           Memory utilization after 1st SCF pass: 
           Heap Space remaining (MW):       21.29            21288298
          Stack Space remaining (MW):       26.21            26213980

   convergence    iter        energy       DeltaE   RMS-Dens  Diis-err    time
 ---------------- ----- ----------------- --------- --------- ---------  ------
 d= 0,ls=0.0,diis     1   -193.6194166941 -2.59D+02  6.18D-02  1.18D+00     1.3
 d= 0,ls=0.0,diis     2   -192.2944047362  1.33D+00  5.74D-02  1.04D+01     2.2
 d= 0,ls=0.0,diis     3   -193.7329016877 -1.44D+00  1.57D-02  5.69D-01     3.1
 d= 0,ls=0.0,diis     4   -193.7395317938 -6.63D-03  9.32D-03  4.55D-01     4.1
 d= 0,ls=0.0,diis     5   -193.7900743254 -5.05D-02  1.88D-03  1.06D-02     5.1
  Resetting Diis
 d= 0,ls=0.0,diis     6   -193.7914051499 -1.33D-03  4.30D-04  8.41D-04     6.1
 d= 0,ls=0.0,diis     7   -193.7915276072 -1.22D-04  1.03D-04  1.10D-05     7.1
 d= 0,ls=0.0,diis     8   -193.7915249316  2.68D-06  1.19D-04  3.47D-05     8.1
 d= 0,ls=0.0,diis     9   -193.7915269959 -2.06D-06  6.36D-05  1.97D-05     9.3
 d= 0,ls=0.0,diis    10   -193.7915290826 -2.09D-06  6.18D-06  1.22D-07    10.4
 d= 0,ls=0.0,diis    11   -193.7915291131 -3.05D-08  1.83D-06  2.90D-08    11.4


         Total DFT energy =     -193.791529113096
      One electron energy =     -395.249344434666
           Coulomb energy =      159.758507385992
    Exchange-Corr. energy =      -23.436828480330
 Nuclear repulsion energy =       65.136136415909

 Numeric. integr. density =       23.999999989452

     Total iterative time =     11.3s



                       DFT Final Molecular Orbital Analysis
                       ------------------------------------

 Vector    1  Occ=2.000000D+00  E=-2.440232D+01
              MO Center= -2.4D-01, -1.1D+00, -1.8D-02, r^2= 1.2D-02
   Bfn.  Coefficient  Atom+Function         Bfn.  Coefficient  Atom+Function  
  ----- ------------  ---------------      ----- ------------  ---------------
    35      0.993396  5 F  s          

 Vector    2  Occ=2.000000D+00  E=-1.407590D+01
              MO Center= -2.7D-01,  1.2D+00, -1.0D-01, r^2= 2.0D-02
   Bfn.  Coefficient  Atom+Function         Bfn.  Coefficient  Atom+Function  
  ----- ------------  ---------------      ----- ------------  ---------------
     3      0.993816  2 N  s                  4      0.030367  2 N  s          

 Vector    3  Occ=2.000000D+00  E=-1.013437D+01
              MO Center=  5.2D-01,  2.7D-02,  1.0D-01, r^2= 2.8D-02
   Bfn.  Coefficient  Atom+Function         Bfn.  Coefficient  Atom+Function  
  ----- ------------  ---------------      ----- ------------  ---------------
    18      0.994656  3 C  s                 19      0.035164  3 C  s          

 Vector    4  Occ=2.000000D+00  E=-1.132356D+00
              MO Center= -1.4D-01, -9.6D-01, -3.7D-03, r^2= 4.2D-01
   Bfn.  Coefficient  Atom+Function         Bfn.  Coefficient  Atom+Function  
  ----- ------------  ---------------      ----- ------------  ---------------
    36      0.509063  5 F  s                 40      0.442026  5 F  s          
    35     -0.220450  5 F  s                 19      0.119414  3 C  s          
    21     -0.083421  3 C  py                38      0.077386  5 F  py         
    18     -0.061608  3 C  s                 37      0.056273  5 F  px         
    20     -0.055822  3 C  px                42      0.035960  5 F  py         

 Vector    5  Occ=2.000000D+00  E=-7.804934D-01
              MO Center= -2.3D-02,  8.0D-01,  6.4D-02, r^2= 9.8D-01
   Bfn.  Coefficient  Atom+Function         Bfn.  Coefficient  Atom+Function  
  ----- ------------  ---------------      ----- ------------  ---------------
     4      0.374738  2 N  s                  8      0.350055  2 N  s          
    19      0.242857  3 C  s                  3     -0.174232  2 N  s          
    40     -0.135888  5 F  s                 21      0.134950  3 C  py         
    23      0.127834  3 C  s                  1      0.121635  1 H  s          
    18     -0.112364  3 C  s                 36     -0.103159  5 F  s          

 Vector    6  Occ=2.000000D+00  E=-5.939786D-01
              MO Center=  3.0D-01,  1.6D-02, -2.0D-02, r^2= 1.9D+00
   Bfn.  Coefficient  Atom+Function         Bfn.  Coefficient  Atom+Function  
  ----- ------------  ---------------      ----- ------------  ---------------
    19      0.311592  3 C  s                 23      0.272153  3 C  s          
     8     -0.233310  2 N  s                 40     -0.230831  5 F  s          
    37      0.188895  5 F  px                 4     -0.185021  2 N  s          
    38      0.183615  5 F  py                33      0.182544  4 H  s          
    18     -0.138399  3 C  s                  1     -0.133458  1 H  s          

 Vector    7  Occ=2.000000D+00  E=-4.753448D-01
              MO Center=  2.4D-01, -5.8D-01, -9.0D-02, r^2= 1.4D+00
   Bfn.  Coefficient  Atom+Function         Bfn.  Coefficient  Atom+Function  
  ----- ------------  ---------------      ----- ------------  ---------------
    38      0.420048  5 F  py                20     -0.309826  3 C  px         
    42      0.249067  5 F  py                40     -0.186664  5 F  s          
    21     -0.183801  3 C  py                33     -0.180936  4 H  s          
    39      0.155858  5 F  pz                37      0.149970  5 F  px         
    22      0.134517  3 C  pz                34     -0.120753  4 H  s          

 Vector    8  Occ=2.000000D+00  E=-4.403527D-01
              MO Center= -8.7D-02,  3.0D-01,  9.3D-02, r^2= 1.9D+00
   Bfn.  Coefficient  Atom+Function         Bfn.  Coefficient  Atom+Function  
  ----- ------------  ---------------      ----- ------------  ---------------
    37      0.304606  5 F  px                 6      0.287864  2 N  py         
    21     -0.230685  3 C  py                20      0.216993  3 C  px         
     1      0.195781  1 H  s                 41      0.188918  5 F  px         
     7      0.171905  2 N  pz                 5     -0.133402  2 N  px         
    39      0.131779  5 F  pz                 2      0.123288  1 H  s          

 Vector    9  Occ=2.000000D+00  E=-4.024159D-01
              MO Center= -8.6D-02, -6.3D-01,  8.2D-02, r^2= 1.3D+00
   Bfn.  Coefficient  Atom+Function         Bfn.  Coefficient  Atom+Function  
  ----- ------------  ---------------      ----- ------------  ---------------
    39      0.515310  5 F  pz                43      0.341063  5 F  pz         
    22      0.220278  3 C  pz                26      0.154227  3 C  pz         
    38     -0.148790  5 F  py                37     -0.136495  5 F  px         
    21      0.135156  3 C  py                23      0.111487  3 C  s          
    19      0.106423  3 C  s                  5      0.100472  2 N  px         

 Vector   10  Occ=2.000000D+00  E=-3.324656D-01
              MO Center= -6.6D-02, -4.8D-01, -2.6D-02, r^2= 1.7D+00
   Bfn.  Coefficient  Atom+Function         Bfn.  Coefficient  Atom+Function  
  ----- ------------  ---------------      ----- ------------  ---------------
    37      0.479651  5 F  px                41      0.329252  5 F  px         
    38     -0.302780  5 F  py                42     -0.208316  5 F  py         
     8      0.198041  2 N  s                 20     -0.167419  3 C  px         
     7     -0.160371  2 N  pz                 6     -0.158691  2 N  py         
    34     -0.144456  4 H  s                 33     -0.137569  4 H  s          

 Vector   11  Occ=2.000000D+00  E=-2.902834D-01
              MO Center= -1.1D-01,  5.1D-01, -1.1D-01, r^2= 1.8D+00
   Bfn.  Coefficient  Atom+Function         Bfn.  Coefficient  Atom+Function  
  ----- ------------  ---------------      ----- ------------  ---------------
     7      0.354631  2 N  pz                39     -0.317427  5 F  pz         
     8     -0.305423  2 N  s                 22      0.239064  3 C  pz         
    43     -0.232901  5 F  pz                11      0.231509  2 N  pz         
     4     -0.157126  2 N  s                 23      0.151463  3 C  s          
     5      0.136085  2 N  px                 6     -0.131764  2 N  py         

 Vector   12  Occ=2.000000D+00  E=-1.766784D-01
              MO Center= -1.9D-01,  9.7D-01, -8.0D-02, r^2= 1.2D+00
   Bfn.  Coefficient  Atom+Function         Bfn.  Coefficient  Atom+Function  
  ----- ------------  ---------------      ----- ------------  ---------------
     5      0.486441  2 N  px                 9      0.381978  2 N  px         
     6      0.323157  2 N  py                10      0.270173  2 N  py         
    38      0.187446  5 F  py                42      0.154155  5 F  py         
    40      0.143870  5 F  s                 25      0.132630  3 C  py         
    34     -0.116944  4 H  s                 21      0.073176  3 C  py         

 Vector   13  Occ=0.000000D+00  E=-1.481297D-01
              MO Center=  2.6D-01,  3.1D-01,  1.3D-01, r^2= 1.8D+00
   Bfn.  Coefficient  Atom+Function         Bfn.  Coefficient  Atom+Function  
  ----- ------------  ---------------      ----- ------------  ---------------
    22      0.488653  3 C  pz                23      0.359954  3 C  s          
    26      0.346412  3 C  pz                 7     -0.291421  2 N  pz         
     8      0.254548  2 N  s                 11     -0.251992  2 N  pz         
    39     -0.235742  5 F  pz                43     -0.195581  5 F  pz         
    34     -0.178375  4 H  s                  2     -0.143336  1 H  s          

 Vector   14  Occ=0.000000D+00  E= 8.828445D-02
              MO Center=  4.5D-01,  5.7D-01,  1.1D-01, r^2= 3.7D+00
   Bfn.  Coefficient  Atom+Function         Bfn.  Coefficient  Atom+Function  
  ----- ------------  ---------------      ----- ------------  ---------------
    23      1.274419  3 C  s                 34     -1.151721  4 H  s          
     2      1.048640  1 H  s                  8     -0.896838  2 N  s          
    40     -0.441694  5 F  s                 11     -0.369184  2 N  pz         
    26     -0.344068  3 C  pz                25     -0.244473  3 C  py         
    42     -0.231553  5 F  py                22     -0.211500  3 C  pz         

 Vector   15  Occ=0.000000D+00  E= 1.120673D-01
              MO Center=  3.7D-01,  9.0D-01,  3.1D-01, r^2= 3.8D+00
   Bfn.  Coefficient  Atom+Function         Bfn.  Coefficient  Atom+Function  
  ----- ------------  ---------------      ----- ------------  ---------------
    34      1.251374  4 H  s                  2      1.239078  1 H  s          
     8     -0.994518  2 N  s                 23     -0.699044  3 C  s          
    11     -0.619401  2 N  pz                24     -0.497155  3 C  px         
    26      0.460312  3 C  pz                25      0.365749  3 C  py         
     7     -0.261045  2 N  pz                40      0.195287  5 F  s          

 Vector   16  Occ=0.000000D+00  E= 1.231089D-01
              MO Center=  6.1D-01, -4.7D-02, -3.4D-02, r^2= 2.2D+00
   Bfn.  Coefficient  Atom+Function         Bfn.  Coefficient  Atom+Function  
  ----- ------------  ---------------      ----- ------------  ---------------
    34      1.040304  4 H  s                 25     -0.848491  3 C  py         
    40     -0.684876  5 F  s                 24     -0.679222  3 C  px         
    23     -0.481589  3 C  s                  8      0.475836  2 N  s          
     9      0.416672  2 N  px                20     -0.404632  3 C  px         
    21     -0.399265  3 C  py                42     -0.304227  5 F  py         

 Vector   17  Occ=0.000000D+00  E= 2.435930D-01
              MO Center=  2.1D-01,  4.1D-01,  7.2D-02, r^2= 2.2D+00
   Bfn.  Coefficient  Atom+Function         Bfn.  Coefficient  Atom+Function  
  ----- ------------  ---------------      ----- ------------  ---------------
    23      1.633607  3 C  s                  8     -1.432741  2 N  s          
    10      1.182763  2 N  py                24     -1.141202  3 C  px         
    25      1.132247  3 C  py                 9     -0.655990  2 N  px         
     2     -0.606653  1 H  s                  6      0.367112  2 N  py         
    20     -0.328311  3 C  px                26     -0.276191  3 C  pz         

 Vector   18  Occ=0.000000D+00  E= 4.808332D-01
              MO Center=  5.7D-01, -1.7D-01,  1.2D-01, r^2= 2.1D+00
   Bfn.  Coefficient  Atom+Function         Bfn.  Coefficient  Atom+Function  
  ----- ------------  ---------------      ----- ------------  ---------------
    25      1.428264  3 C  py                21     -0.890116  3 C  py         
    40      0.770339  5 F  s                 23     -0.607084  3 C  s          
    24      0.467447  3 C  px                19      0.273253  3 C  s          
     8     -0.258649  2 N  s                 38     -0.239307  5 F  py         
    42      0.183671  5 F  py                20     -0.179785  3 C  px         

 Vector   19  Occ=0.000000D+00  E= 4.887933D-01
              MO Center=  7.2D-01,  1.1D-02,  1.9D-01, r^2= 1.9D+00
   Bfn.  Coefficient  Atom+Function         Bfn.  Coefficient  Atom+Function  
  ----- ------------  ---------------      ----- ------------  ---------------
    24      1.112541  3 C  px                26      0.933749  3 C  pz         
    22     -0.775629  3 C  pz                 8      0.638560  2 N  s          
    20     -0.584495  3 C  px                23     -0.431108  3 C  s          
    40      0.405263  5 F  s                 10     -0.300601  2 N  py         
    25     -0.264820  3 C  py                42      0.162835  5 F  py         

 Vector   20  Occ=0.000000D+00  E= 5.432473D-01
              MO Center=  3.0D-02,  1.6D-01,  6.2D-01, r^2= 1.7D+00
   Bfn.  Coefficient  Atom+Function         Bfn.  Coefficient  Atom+Function  
  ----- ------------  ---------------      ----- ------------  ---------------
    24      1.502782  3 C  px                23     -1.106013  3 C  s          
    26     -0.831775  3 C  pz                 8      0.728909  2 N  s          
    19      0.724826  3 C  s                 25     -0.637859  3 C  py         
    34     -0.608497  4 H  s                 22      0.547818  3 C  pz         
    20     -0.534009  3 C  px                21      0.309276  3 C  py         

 Vector   21  Occ=0.000000D+00  E= 6.347591D-01
              MO Center=  5.1D-01,  4.5D-01, -3.8D-01, r^2= 2.0D+00
   Bfn.  Coefficient  Atom+Function         Bfn.  Coefficient  Atom+Function  
  ----- ------------  ---------------      ----- ------------  ---------------
    23      1.292370  3 C  s                 33     -0.688963  4 H  s          
    19     -0.584618  3 C  s                 24      0.492136  3 C  px         
     7      0.478464  2 N  pz                11     -0.443165  2 N  pz         
    26     -0.411593  3 C  pz                 4     -0.302642  2 N  s          
     5     -0.240463  2 N  px                34     -0.213211  4 H  s          

 Vector   22  Occ=0.000000D+00  E= 6.761829D-01
              MO Center= -5.0D-01,  1.5D+00, -2.0D-01, r^2= 1.5D+00
   Bfn.  Coefficient  Atom+Function         Bfn.  Coefficient  Atom+Function  
  ----- ------------  ---------------      ----- ------------  ---------------
    10      0.965572  2 N  py                 9     -0.740214  2 N  px         
    23      0.584571  3 C  s                  7      0.518150  2 N  pz         
     1     -0.477827  1 H  s                  6     -0.477752  2 N  py         
     5      0.434333  2 N  px                11     -0.414037  2 N  pz         
    25      0.299060  3 C  py                28     -0.191579  3 C  dxy        

 Vector   23  Occ=0.000000D+00  E= 7.252799D-01
              MO Center= -3.1D-01,  1.1D+00, -1.0D-01, r^2= 1.8D+00
   Bfn.  Coefficient  Atom+Function         Bfn.  Coefficient  Atom+Function  
  ----- ------------  ---------------      ----- ------------  ---------------
     9      0.921244  2 N  px                10      0.881959  2 N  py         
    24     -0.870302  3 C  px                 5     -0.739352  2 N  px         
     6     -0.547539  2 N  py                40     -0.442255  5 F  s          
    34      0.380442  4 H  s                 25     -0.323931  3 C  py         
     8     -0.319039  2 N  s                 26      0.170352  3 C  pz         

 Vector   24  Occ=0.000000D+00  E= 8.053779D-01
              MO Center=  1.3D+00,  2.5D-02, -4.3D-01, r^2= 1.8D+00
   Bfn.  Coefficient  Atom+Function         Bfn.  Coefficient  Atom+Function  
  ----- ------------  ---------------      ----- ------------  ---------------
    23      2.250427  3 C  s                 34     -2.197206  4 H  s          
    19     -1.079782  3 C  s                 24      1.034660  3 C  px         
    33      0.818539  4 H  s                 26     -0.712135  3 C  pz         
    20     -0.545767  3 C  px                22      0.334616  3 C  pz         
    29     -0.189170  3 C  dxz                9      0.144880  2 N  px         

 Vector   25  Occ=0.000000D+00  E= 8.353788D-01
              MO Center= -2.1D-01,  1.0D+00,  2.4D-01, r^2= 2.5D+00
   Bfn.  Coefficient  Atom+Function         Bfn.  Coefficient  Atom+Function  
  ----- ------------  ---------------      ----- ------------  ---------------
     1      0.983736  1 H  s                  2     -0.792574  1 H  s          
    26      0.736364  3 C  pz                11     -0.662541  2 N  pz         
    23     -0.560158  3 C  s                 24     -0.555267  3 C  px         
    40     -0.474959  5 F  s                 34      0.467165  4 H  s          
     8      0.318093  2 N  s                 19      0.304662  3 C  s          

 Vector   26  Occ=0.000000D+00  E= 8.943886D-01
              MO Center= -2.5D-01,  1.1D+00,  1.2D-01, r^2= 2.6D+00
   Bfn.  Coefficient  Atom+Function         Bfn.  Coefficient  Atom+Function  
  ----- ------------  ---------------      ----- ------------  ---------------
    23      2.359499  3 C  s                  2     -1.585097  1 H  s          
    10      1.374688  2 N  py                11      1.322704  2 N  pz         
     9     -0.907470  2 N  px                25      0.720652  3 C  py         
     7     -0.699016  2 N  pz                19     -0.681166  3 C  s          
    26     -0.617372  3 C  pz                 6     -0.488457  2 N  py         

 Vector   27  Occ=0.000000D+00  E= 1.054116D+00
              MO Center= -4.2D-01, -1.2D+00,  3.6D-02, r^2= 1.8D+00
   Bfn.  Coefficient  Atom+Function         Bfn.  Coefficient  Atom+Function  
  ----- ------------  ---------------      ----- ------------  ---------------
    40      2.288515  5 F  s                 36     -1.102158  5 F  s          
     8     -1.012956  2 N  s                 42     -0.657509  5 F  py         
    49     -0.520853  5 F  dzz               38      0.508611  5 F  py         
    44     -0.509650  5 F  dxx               47     -0.478877  5 F  dyy        
    25      0.453395  3 C  py                11     -0.435317  2 N  pz         

 Vector   28  Occ=0.000000D+00  E= 1.077382D+00
              MO Center=  5.3D-02,  6.4D-01,  7.5D-02, r^2= 2.2D+00
   Bfn.  Coefficient  Atom+Function         Bfn.  Coefficient  Atom+Function  
  ----- ------------  ---------------      ----- ------------  ---------------
     8      4.479096  2 N  s                 23     -3.243378  3 C  s          
     4     -1.418787  2 N  s                 40      1.234100  5 F  s          
    25     -1.195628  3 C  py                10     -1.165526  2 N  py         
    24      1.040626  3 C  px                 9      0.930817  2 N  px         
    19      0.629512  3 C  s                 11      0.583889  2 N  pz         

 Vector   29  Occ=0.000000D+00  E= 1.161928D+00
              MO Center= -1.4D-01, -6.0D-01, -2.8D-02, r^2= 1.7D+00
   Bfn.  Coefficient  Atom+Function         Bfn.  Coefficient  Atom+Function  
  ----- ------------  ---------------      ----- ------------  ---------------
    43      0.717824  5 F  pz                39     -0.581865  5 F  pz         
    41      0.562621  5 F  px                37     -0.496817  5 F  px         
    26     -0.416148  3 C  pz                23      0.406386  3 C  s          
    42     -0.366170  5 F  py                34     -0.304352  4 H  s          
     8      0.292256  2 N  s                 29     -0.291319  3 C  dxz        

 Vector   30  Occ=0.000000D+00  E= 1.209097D+00
              MO Center= -1.4D-01, -5.0D-01, -3.1D-02, r^2= 2.0D+00
   Bfn.  Coefficient  Atom+Function         Bfn.  Coefficient  Atom+Function  
  ----- ------------  ---------------      ----- ------------  ---------------
    23      0.890830  3 C  s                 43      0.746380  5 F  pz         
    26     -0.696914  3 C  pz                39     -0.557703  5 F  pz         
    41     -0.510912  5 F  px                34     -0.484574  4 H  s          
    42      0.483241  5 F  py                24      0.446706  3 C  px         
    31     -0.418489  3 C  dyz               37      0.390154  5 F  px         

 Vector   31  Occ=0.000000D+00  E= 1.365652D+00
              MO Center= -4.1D-02, -3.4D-01,  8.0D-04, r^2= 1.8D+00
   Bfn.  Coefficient  Atom+Function         Bfn.  Coefficient  Atom+Function  
  ----- ------------  ---------------      ----- ------------  ---------------
    31      0.868658  3 C  dyz               41     -0.452852  5 F  px         
    14      0.438250  2 N  dxz               48     -0.439356  5 F  dyz        
    43      0.412259  5 F  pz                40     -0.383822  5 F  s          
    46     -0.378246  5 F  dxz               23      0.311202  3 C  s          
    45      0.269922  5 F  dxy               44      0.267497  5 F  dxx        

 Vector   32  Occ=0.000000D+00  E= 1.374498D+00
              MO Center=  2.3D-02, -4.3D-01,  1.9D-02, r^2= 1.8D+00
   Bfn.  Coefficient  Atom+Function         Bfn.  Coefficient  Atom+Function  
  ----- ------------  ---------------      ----- ------------  ---------------
     8      0.871136  2 N  s                 29     -0.534821  3 C  dxz        
    25     -0.521450  3 C  py                41     -0.463819  5 F  px         
    48      0.426612  5 F  dyz               40     -0.399597  5 F  s          
    27     -0.391366  3 C  dxx               31     -0.388872  3 C  dyz        
    43     -0.379388  5 F  pz                23     -0.368611  3 C  s          

 Vector   33  Occ=0.000000D+00  E= 1.584553D+00
              MO Center=  5.3D-02, -3.5D-01,  7.8D-02, r^2= 1.8D+00
   Bfn.  Coefficient  Atom+Function         Bfn.  Coefficient  Atom+Function  
  ----- ------------  ---------------      ----- ------------  ---------------
    40      2.753355  5 F  s                 36     -1.230720  5 F  s          
     8     -1.020073  2 N  s                 25      0.939159  3 C  py         
    42      0.671827  5 F  py                47     -0.660572  5 F  dyy        
    14      0.553155  2 N  dxz               41      0.550665  5 F  px         
    45     -0.534630  5 F  dxy               32     -0.429983  3 C  dzz        

 Vector   34  Occ=0.000000D+00  E= 1.626407D+00
              MO Center= -1.0D-01,  8.2D-01, -8.5D-02, r^2= 1.3D+00
   Bfn.  Coefficient  Atom+Function         Bfn.  Coefficient  Atom+Function  
  ----- ------------  ---------------      ----- ------------  ---------------
    14      1.067848  2 N  dxz               16      0.933962  2 N  dyz        
    23     -0.765965  3 C  s                  8      0.492130  2 N  s          
    29      0.383705  3 C  dxz               33      0.366717  4 H  s          
    46      0.344521  5 F  dxz               26      0.288977  3 C  pz         
    24     -0.276377  3 C  px                34      0.273211  4 H  s          

 Vector   35  Occ=0.000000D+00  E= 1.724571D+00
              MO Center= -8.5D-02, -6.5D-01,  3.4D-02, r^2= 1.4D+00
   Bfn.  Coefficient  Atom+Function         Bfn.  Coefficient  Atom+Function  
  ----- ------------  ---------------      ----- ------------  ---------------
    46      0.910865  5 F  dxz               48     -0.667437  5 F  dyz        
    28     -0.523418  3 C  dxy               25      0.445477  3 C  py         
    44      0.439425  5 F  dxx               49     -0.404001  5 F  dzz        
    24     -0.349686  3 C  px                14     -0.318849  2 N  dxz        
    29      0.310460  3 C  dxz               45     -0.257946  5 F  dxy        

 Vector   36  Occ=0.000000D+00  E= 1.746590D+00
              MO Center= -1.9D-01, -5.7D-01, -1.1D-01, r^2= 1.5D+00
   Bfn.  Coefficient  Atom+Function         Bfn.  Coefficient  Atom+Function  
  ----- ------------  ---------------      ----- ------------  ---------------
    40      1.468502  5 F  s                 23     -1.302384  3 C  s          
    48     -0.812872  5 F  dyz               36     -0.677161  5 F  s          
    44     -0.640530  5 F  dxx               46      0.489762  5 F  dxz        
    16     -0.453753  2 N  dyz               42      0.438297  5 F  py         
     8      0.408678  2 N  s                 19      0.365333  3 C  s          

 Vector   37  Occ=0.000000D+00  E= 1.819852D+00
              MO Center=  3.2D-02, -1.0D-01, -1.4D-01, r^2= 2.0D+00
   Bfn.  Coefficient  Atom+Function         Bfn.  Coefficient  Atom+Function  
  ----- ------------  ---------------      ----- ------------  ---------------
    23      1.578018  3 C  s                 40     -1.325584  5 F  s          
    46      0.893109  5 F  dxz               26     -0.662968  3 C  pz         
    14      0.657775  2 N  dxz               36      0.576395  5 F  s          
    33     -0.550976  4 H  s                 19     -0.410219  3 C  s          
    12     -0.405891  2 N  dxx               16     -0.403535  2 N  dyz        

 Vector   38  Occ=0.000000D+00  E= 1.874138D+00
              MO Center= -1.3D-01, -2.1D-01, -3.5D-02, r^2= 1.8D+00
   Bfn.  Coefficient  Atom+Function         Bfn.  Coefficient  Atom+Function  
  ----- ------------  ---------------      ----- ------------  ---------------
    40      1.713989  5 F  s                 23     -1.536658  3 C  s          
     8      0.861637  2 N  s                 47     -0.803680  5 F  dyy        
    24      0.673292  3 C  px                10     -0.592847  2 N  py         
    28     -0.527531  3 C  dxy               13      0.497133  2 N  dxy        
    36     -0.495989  5 F  s                 15      0.424533  2 N  dyy        

 Vector   39  Occ=0.000000D+00  E= 1.945866D+00
              MO Center=  1.4D-01, -1.3D-01,  4.9D-02, r^2= 1.5D+00
   Bfn.  Coefficient  Atom+Function         Bfn.  Coefficient  Atom+Function  
  ----- ------------  ---------------      ----- ------------  ---------------
    23      1.294292  3 C  s                 40     -1.297959  5 F  s          
    24     -0.924376  3 C  px                45      0.867384  5 F  dxy        
     8     -0.825826  2 N  s                 32     -0.785171  3 C  dzz        
    30      0.483326  3 C  dyy               19     -0.462504  3 C  s          
    36      0.394646  5 F  s                 14     -0.328633  2 N  dxz        

 Vector   40  Occ=0.000000D+00  E= 2.005534D+00
              MO Center=  1.0D-01,  3.0D-01,  1.9D-02, r^2= 1.6D+00
   Bfn.  Coefficient  Atom+Function         Bfn.  Coefficient  Atom+Function  
  ----- ------------  ---------------      ----- ------------  ---------------
     8      1.261316  2 N  s                 13     -1.050376  2 N  dxy        
    28     -0.938880  3 C  dxy               23     -0.621432  3 C  s          
     4     -0.599372  2 N  s                  9      0.413130  2 N  px         
    10     -0.368411  2 N  py                29      0.362234  3 C  dxz        
    44     -0.334854  5 F  dxx               49      0.330944  5 F  dzz        

 Vector   41  Occ=0.000000D+00  E= 2.135468D+00
              MO Center=  8.0D-02,  5.1D-01,  5.8D-02, r^2= 1.6D+00
   Bfn.  Coefficient  Atom+Function         Bfn.  Coefficient  Atom+Function  
  ----- ------------  ---------------      ----- ------------  ---------------
    29      0.998945  3 C  dxz                8      0.988820  2 N  s          
     1     -0.711963  1 H  s                 17      0.709917  2 N  dzz        
    28      0.646506  3 C  dxy               11      0.610997  2 N  pz         
    23     -0.598555  3 C  s                 12     -0.544411  2 N  dxx        
    31     -0.437213  3 C  dyz               33      0.392984  4 H  s          

 Vector   42  Occ=0.000000D+00  E= 2.293451D+00
              MO Center= -1.2D-02,  7.1D-01, -1.4D-02, r^2= 1.5D+00
   Bfn.  Coefficient  Atom+Function         Bfn.  Coefficient  Atom+Function  
  ----- ------------  ---------------      ----- ------------  ---------------
    16      1.360816  2 N  dyz               31      0.991333  3 C  dyz        
     8      0.916347  2 N  s                 14     -0.708150  2 N  dxz        
    29     -0.707690  3 C  dxz                1     -0.665472  1 H  s          
    23     -0.628752  3 C  s                 13     -0.525870  2 N  dxy        
    46      0.408937  5 F  dxz               24      0.345825  3 C  px         

 Vector   43  Occ=0.000000D+00  E= 2.321881D+00
              MO Center=  1.3D-01, -4.0D-01,  3.3D-02, r^2= 1.4D+00
   Bfn.  Coefficient  Atom+Function         Bfn.  Coefficient  Atom+Function  
  ----- ------------  ---------------      ----- ------------  ---------------
    48      1.240824  5 F  dyz               31      1.043899  3 C  dyz        
    29      1.030662  3 C  dxz               46      0.708394  5 F  dxz        
     8     -0.525056  2 N  s                 43      0.383916  5 F  pz         
    23      0.359569  3 C  s                 28     -0.305126  3 C  dxy        
    16     -0.271661  2 N  dyz               33      0.239066  4 H  s          

 Vector   44  Occ=0.000000D+00  E= 2.445194D+00
              MO Center=  3.8D-02,  3.2D-01, -2.9D-03, r^2= 1.7D+00
   Bfn.  Coefficient  Atom+Function         Bfn.  Coefficient  Atom+Function  
  ----- ------------  ---------------      ----- ------------  ---------------
     8      1.744233  2 N  s                 23     -1.618886  3 C  s          
    10     -0.991875  2 N  py                24      0.995821  3 C  px         
    40      0.977669  5 F  s                 27     -0.775432  3 C  dxx        
    15      0.735376  2 N  dyy               13     -0.576874  2 N  dxy        
    28      0.564556  3 C  dxy               12     -0.510747  2 N  dxx        

 Vector   45  Occ=0.000000D+00  E= 2.636897D+00
              MO Center=  5.8D-02,  4.2D-01, -1.2D-02, r^2= 1.8D+00
   Bfn.  Coefficient  Atom+Function         Bfn.  Coefficient  Atom+Function  
  ----- ------------  ---------------      ----- ------------  ---------------
     8      1.672860  2 N  s                 23     -1.558904  3 C  s          
    13     -1.415329  2 N  dxy               28      1.098849  3 C  dxy        
    10     -0.932392  2 N  py                30     -0.762642  3 C  dyy        
     9      0.711452  2 N  px                25     -0.636530  3 C  py         
    17     -0.514902  2 N  dzz               21     -0.469030  3 C  py         

 Vector   46  Occ=0.000000D+00  E= 2.885830D+00
              MO Center=  4.9D-02, -6.7D-01,  2.3D-02, r^2= 1.2D+00
   Bfn.  Coefficient  Atom+Function         Bfn.  Coefficient  Atom+Function  
  ----- ------------  ---------------      ----- ------------  ---------------
    40      2.196652  5 F  s                 45      1.547077  5 F  dxy        
    28     -1.319254  3 C  dxy               23     -1.289538  3 C  s          
    42      1.214193  5 F  py                36     -1.079600  5 F  s          
    21      0.831474  3 C  py                41      0.814290  5 F  px         
    19     -0.732067  3 C  s                 47      0.640691  5 F  dyy        

 Vector   47  Occ=0.000000D+00  E= 3.583458D+00
              MO Center= -2.6D-01,  1.1D+00, -9.6D-02, r^2= 1.0D+00
   Bfn.  Coefficient  Atom+Function         Bfn.  Coefficient  Atom+Function  
  ----- ------------  ---------------      ----- ------------  ---------------
     8      3.361909  2 N  s                 12     -1.494125  2 N  dxx        
    17     -1.480472  2 N  dzz               15     -1.465233  2 N  dyy        
    23     -1.097560  3 C  s                  4      1.088186  2 N  s          
    40      0.722621  5 F  s                  2     -0.598398  1 H  s          
    19      0.592916  3 C  s                  3     -0.459573  2 N  s          

 Vector   48  Occ=0.000000D+00  E= 3.992651D+00
              MO Center= -1.7D-01, -1.0D+00, -1.4D-02, r^2= 1.6D+00
   Bfn.  Coefficient  Atom+Function         Bfn.  Coefficient  Atom+Function  
  ----- ------------  ---------------      ----- ------------  ---------------
    40      8.849953  5 F  s                 49     -2.837377  5 F  dzz        
    44     -2.677566  5 F  dxx               47     -2.408162  5 F  dyy        
    36     -2.116726  5 F  s                 23     -1.958216  3 C  s          
    42      1.113123  5 F  py                25      0.813707  3 C  py         
    24      0.802428  3 C  px                41      0.693543  5 F  px         

 Vector   49  Occ=0.000000D+00  E= 4.114737D+00
              MO Center=  5.3D-01,  6.5D-02,  9.2D-02, r^2= 9.4D-01
   Bfn.  Coefficient  Atom+Function         Bfn.  Coefficient  Atom+Function  
  ----- ------------  ---------------      ----- ------------  ---------------
    19      2.906240  3 C  s                 30     -2.138914  3 C  dyy        
    27     -1.897375  3 C  dxx               32     -1.711827  3 C  dzz        
    23      1.519881  3 C  s                  8     -0.752356  2 N  s          
    34     -0.548329  4 H  s                 45      0.515857  5 F  dxy        
    18     -0.453268  3 C  s                 15      0.431215  2 N  dyy        


 center of mass
 --------------
 x =  -0.04818273 y =  -0.10924196 z =  -0.01218556

 moments of inertia (a.u.)
 ------------------
         166.675039802647          -0.000000000001           0.000000000000
          -0.000000000001          31.112195950518          -0.000000000003
           0.000000000000          -0.000000000003         189.528394664525

     Multipole analysis of the density
     ---------------------------------

     L   x y z        total         alpha         beta         nuclear
     -   - - -        -----         -----         ----         -------
     0   0 0 0     -0.000000    -12.000000    -12.000000     24.000000

     1   1 0 0      0.626502      0.313251      0.313251      0.000000
     1   0 1 0     -0.088773     -0.044386     -0.044386      0.000000
     1   0 0 1      0.421609      0.210804      0.210804     -0.000000

     2   2 0 0    -11.680734    -14.548069    -14.548069     17.415404
     2   1 1 0     -0.625233      0.572504      0.572504     -1.770242
     2   1 0 1     -0.750791      0.576663      0.576663     -1.904117
     2   0 2 0    -13.289025    -48.721782    -48.721782     84.154538
     2   0 1 1      1.642760     -0.340499     -0.340499      2.323759
     2   0 0 2    -11.389744     -7.502055     -7.502055      3.614367


 Parallel integral file used      18 records with       0 large values


 Task  times  cpu:       11.3s     wall:       11.4s
 Summary of allocated global arrays
-----------------------------------
  No active global arrays


MA_summarize_allocated_blocks: starting scan ...
MA_summarize_allocated_blocks: scan completed: 0 heap blocks, 0 stack blocks
MA usage statistics:

	allocation statistics:
					      heap	     stack
					      ----	     -----
	current number of blocks	         0	         0
	maximum number of blocks	        21	        55
	current total bytes		         0	         0
	maximum total bytes		  39408600	  22512088
	maximum total K-bytes		     39409	     22513
	maximum total M-bytes		        40	        23


                                NWChem Input Module
                                -------------------




                                     CITATION
                                     --------
                Please cite the following reference when publishing
                           results obtained with NWChem:

          E. Apra, E. J. Bylaska, W. A. de Jong, N. Govind, K. Kowalski,
       T. P. Straatsma, M. Valiev, H. J. J. van Dam, Y. Alexeev, J. Anchell,
       V. Anisimov, F. W. Aquino, R. Atta-Fynn, J. Autschbach, N. P. Bauman,
     J. C. Becca, D. E. Bernholdt, K. Bhaskaran-Nair, S. Bogatko, P. Borowski,
         J. Boschen, J. Brabec, A. Bruner, E. Cauet, Y. Chen, G. N. Chuev,
      C. J. Cramer, J. Daily, M. J. O. Deegan, T. H. Dunning Jr., M. Dupuis,
   K. G. Dyall, G. I. Fann, S. A. Fischer, A. Fonari, H. Fruchtl, L. Gagliardi,
      J. Garza, N. Gawande, S. Ghosh, K. Glaesemann, A. W. Gotz, J. Hammond,
       V. Helms, E. D. Hermes, K. Hirao, S. Hirata, M. Jacquelin, L. Jensen,
   B. G. Johnson, H. Jonsson, R. A. Kendall, M. Klemm, R. Kobayashi, V. Konkov,
      S. Krishnamoorthy, M. Krishnan, Z. Lin, R. D. Lins, R. J. Littlefield,
      A. J. Logsdail, K. Lopata, W. Ma, A. V. Marenich, J. Martin del Campo,
   D. Mejia-Rodriguez, J. E. Moore, J. M. Mullin, T. Nakajima, D. R. Nascimento,
    J. A. Nichols, P. J. Nichols, J. Nieplocha, A. Otero-de-la-Roza, B. Palmer,
    A. Panyala, T. Pirojsirikul, B. Peng, R. Peverati, J. Pittner, L. Pollack,
   R. M. Richard, P. Sadayappan, G. C. Schatz, W. A. Shelton, D. W. Silverstein,
   D. M. A. Smith, T. A. Soares, D. Song, M. Swart, H. L. Taylor, G. S. Thomas,
            V. Tipparaju, D. G. Truhlar, K. Tsemekhman, T. Van Voorhis,
      A. Vazquez-Mayagoitia, P. Verma, O. Villa, A. Vishnu, K. D. Vogiatzis,
        D. Wang, J. H. Weare, M. J. Williamson, T. L. Windus, K. Wolinski,
        A. T. Wong, Q. Wu, C. Yang, Q. Yu, M. Zacharias, Z. Zhang, Y. Zhao,
                                and R. J. Harrison
                        "NWChem: Past, present, and future
                         J. Chem. Phys. 152, 184102 (2020)
                               doi:10.1063/5.0004997

                                      AUTHORS
                                      -------
  E. Apra, E. J. Bylaska, N. Govind, K. Kowalski, M. Valiev, D. Mejia-Rodriguez,
       A. Kunitsa, N. P. Bauman, A. Panyala, W. A. de Jong, T. P. Straatsma,
   H. J. J. van Dam, D. Wang, T. L. Windus, J. Hammond, J. Autschbach, A. Woods,
    K. Bhaskaran-Nair, J. Brabec, K. Lopata, S. A. Fischer, S. Krishnamoorthy,
     M. Jacquelin, W. Ma, M. Klemm, O. Villa, Y. Chen, V. Anisimov, F. Aquino,
     S. Hirata, M. T. Hackler, E. Hermes, L. Jensen, J. E. Moore, J. C. Becca,
      V. Konjkov, T. Risthaus, M. Malagoli, A. Marenich, A. Otero-de-la-Roza,
        J. Mullin, P. Nichols, R. Peverati, J. Pittner, Y. Zhao, P.-D. Fan,
        A. Fonari, M. J. Williamson, R. J. Harrison, J. R. Rehr, M. Dupuis,
     D. Silverstein, D. M. A. Smith, J. Nieplocha, V. Tipparaju, M. Krishnan,
     B. E. Van Kuiken, A. Vazquez-Mayagoitia, M. Swart, Q. Wu, T. Van Voorhis,
     A. A. Auer, M. Nooijen, L. D. Crosby, E. Brown, G. Cisneros, G. I. Fann,
   H. Fruchtl, J. Garza, K. Hirao, R. A. Kendall, J. A. Nichols, K. Tsemekhman,
    K. Wolinski, J. Anchell, D. E. Bernholdt, P. Borowski, T. Clark, D. Clerc,
   H. Dachsel, M. J. O. Deegan, K. Dyall, D. Elwood, E. Glendening, M. Gutowski,
   A. C. Hess, J. Jaffe, B. G. Johnson, J. Ju, R. Kobayashi, R. Kutteh, Z. Lin,
   R. Littlefield, X. Long, B. Meng, T. Nakajima, S. Niu, L. Pollack, M. Rosing,
   K. Glaesemann, G. Sandrone, M. Stave, H. Taylor, G. Thomas, J. H. van Lenthe,
                               A. T. Wong, Z. Zhang.

 Total times  cpu:       11.3s     wall:       11.4s
